ITEM: TIMESTEP
0
ITEM: NUMBER OF ATOMS
4455
ITEM: BOX BOUNDS pp ss ss
-6.6390538528315446e-02 4.6450483680673154e+00
-4.4179385873935528e+00 3.0069077178463465e+02
-4.4740544797805075e+00 3.0451009348149751e+02
ITEM: ATOMS id type x y z
1 1  -0.0663905385283154    -4.38743379807215     -4.4431622162247
2 2     2.28932891477001    -4.38743379807215   -0.360487809606182
3 2  -0.0663905385283154    -2.46284262587448    -1.72137927847834
4 3     2.28932891477001    -2.46284262587448     2.36129512814019
5 3     2.28932891477001    -3.42513821197332    -3.08227074735152
6 2  -0.0663905385283154    -3.42513821197332       1.000403659267
7 2  -0.0663905385283154    -1.50054703977564     -4.4431622162247
8 2     2.28932891477001    -1.50054703977564   -0.360487809606182
9 2  -0.0663905385283154    0.424044132423055    -1.72137927847834
10 2     2.28932891477001    0.424044132423055     2.36129512814019
11 1     2.28932891477001    -0.53825145367578    -3.08227074735152
12 2  -0.0663905385283154    -0.53825145367578       1.000403659267
13 3  -0.0663905385283154     1.38633971852189     -4.4431622162247
14 1     2.28932891477001     1.38633971852189   -0.360487809606182
15 1  -0.0663905385283154     3.31093089071956    -1.72137927847834
16 2     2.28932891477001     3.31093089071956     2.36129512814019
17 4     2.28932891477001     2.34863530462073    -3.08227074735152
18 1  -0.0663905385283154     2.34863530462073       1.000403659267
19 2  -0.0663905385283154      4.2732264768184     -4.4431622162247
20 2     2.28932891477001      4.2732264768184   -0.360487809606182
21 2  -0.0663905385283154      6.1978176490171    -1.72137927847834
22 2     2.28932891477001      6.1978176490171     2.36129512814019
23 2     2.28932891477001     5.23552206291826    -3.08227074735152
24 1  -0.0663905385283154     5.23552206291826       1.000403659267
25 4  -0.0663905385283154     7.16011323511593     -4.4431622162247
26 3     2.28932891477001     7.16011323511593   -0.360487809606182
27 2  -0.0663905385283154      9.0847044073136    -1.72137927847834
28 1     2.28932891477001      9.0847044073136     2.36129512814019
29 2     2.28932891477001     8.12240882121477    -3.08227074735152
30 4  -0.0663905385283154     8.12240882121477       1.000403659267
31 2  -0.0663905385283154     10.0469999934124     -4.4431622162247
32 3     2.28932891477001     10.0469999934124   -0.360487809606182
33 2  -0.0663905385283154     11.9715911656111    -1.72137927847834
34 3     2.28932891477001     11.9715911656111     2.36129512814019
35 3     2.28932891477001     11.0092955795123    -3.08227074735152
36 2  -0.0663905385283154     11.0092955795123       1.000403659267
37 1  -0.0663905385283154       12.93388675171     -4.4431622162247
38 1     2.28932891477001       12.93388675171   -0.360487809606182
39 2  -0.0663905385283154     14.8584779239076    -1.72137927847834
40 3     2.28932891477001     14.8584779239076     2.36129512814019
41 2     2.28932891477001     13.8961823378088    -3.08227074735152
42 1  -0.0663905385283154     13.8961823378088       1.000403659267
43 3  -0.0663905385283154     15.8207735100065     -4.4431622162247
44 2     2.28932891477001     15.8207735100065   -0.360487809606182
45 2  -0.0663905385283154     17.7453646822052    -1.72137927847834
46 3     2.28932891477001     17.7453646822052     2.36129512814019
47 3     2.28932891477001     16.7830690961063    -3.08227074735152
48 2  -0.0663905385283154     16.7830690961063       1.000403659267
49 2  -0.0663905385283154      18.707660268304     -4.4431622162247
50 1     2.28932891477001      18.707660268304   -0.360487809606182
51 3  -0.0663905385283154     20.6322514405017    -1.72137927847834
52 3     2.28932891477001     20.6322514405017     2.36129512814019
53 1     2.28932891477001     19.6699558544029    -3.08227074735152
54 1  -0.0663905385283154     19.6699558544029       1.000403659267
55 1  -0.0663905385283154     21.5945470266005     -4.4431622162247
56 2     2.28932891477001     21.5945470266005   -0.360487809606182
57 2  -0.0663905385283154     23.5191381987992    -1.72137927847834
58 2     2.28932891477001     23.5191381987992     2.36129512814019
59 4     2.28932891477001     22.5568426127004    -3.08227074735152
60 2  -0.0663905385283154     22.5568426127004       1.000403659267
61 4  -0.0663905385283154     24.4814337848981     -4.4431622162247
62 2     2.28932891477001     24.4814337848981   -0.360487809606182
63 2  -0.0663905385283154     26.4060249570957    -1.72137927847834
64 3     2.28932891477001     26.4060249570957     2.36129512814019
65 1     2.28932891477001     25.4437293709969    -3.08227074735152
66 2  -0.0663905385283154     25.4437293709969       1.000403659267
67 2  -0.0663905385283154     27.3683205431946     -4.4431622162247
68 1     2.28932891477001     27.3683205431946   -0.360487809606182
69 4  -0.0663905385283154     29.2929117153933    -1.72137927847834
70 2     2.28932891477001     29.2929117153933     2.36129512814019
71 2     2.28932891477001     28.3306161292944    -3.08227074735152
72 3  -0.0663905385283154     28.3306161292944       1.000403659267
73 1  -0.0663905385283154     30.2552073014921     -4.4431622162247
74 4     2.28932891477001     30.2552073014921   -0.360487809606182
75 2  -0.0663905385283154     32.1797984736898    -1.72137927847834
76 2     2.28932891477001     32.1797984736898     2.36129512814019
77 2     2.28932891477001     31.2175028875909    -3.08227074735152
78 2  -0.0663905385283154     31.2175028875909       1.000403659267
79 2  -0.0663905385283154     33.1420940597886     -4.4431622162247
80 3     2.28932891477001     33.1420940597886   -0.360487809606182
81 1  -0.0663905385283154     35.0666852319873    -1.72137927847834
82 2     2.28932891477001     35.0666852319873     2.36129512814019
83 2     2.28932891477001     34.1043896458885    -3.08227074735152
84 3  -0.0663905385283154     34.1043896458885       1.000403659267
85 4  -0.0663905385283154     36.0289808180861     -4.4431622162247
86 4     2.28932891477001     36.0289808180861   -0.360487809606182
87 1  -0.0663905385283154     37.9535719902838    -1.72137927847834
88 3     2.28932891477001     37.9535719902838     2.36129512814019
89 2     2.28932891477001      36.991276404185    -3.08227074735152
90 3  -0.0663905385283154      36.991276404185       1.000403659267
91 2  -0.0663905385283154     38.9158675763826     -4.4431622162247
92 4     2.28932891477001     38.9158675763826   -0.360487809606182
93 3  -0.0663905385283154     40.8404587485814    -1.72137927847834
94 2     2.28932891477001     40.8404587485814     2.36129512814019
95 2     2.28932891477001     39.8781631624825    -3.08227074735152
96 2  -0.0663905385283154     39.8781631624825       1.000403659267
97 2  -0.0663905385283154     41.8027543346802     -4.4431622162247
98 1     2.28932891477001     41.8027543346802   -0.360487809606182
99 4  -0.0663905385283154     43.7273455068779    -1.72137927847834
100 4     2.28932891477001     43.7273455068779     2.36129512814019
101 3     2.28932891477001      42.765049920779    -3.08227074735152
102 3  -0.0663905385283154      42.765049920779       1.000403659267
103 2  -0.0663905385283154     44.6896410929767     -4.4431622162247
104 2     2.28932891477001     44.6896410929767   -0.360487809606182
105 4  -0.0663905385283154     46.6142322651754    -1.72137927847834
106 3     2.28932891477001     46.6142322651754     2.36129512814019
107 4     2.28932891477001     45.6519366790765    -3.08227074735152
108 2  -0.0663905385283154     45.6519366790765       1.000403659267
109 1  -0.0663905385283154     47.5765278512742     -4.4431622162247
110 2     2.28932891477001     47.5765278512742   -0.360487809606182
111 2  -0.0663905385283154     49.5011190234719    -1.72137927847834
112 2     2.28932891477001     49.5011190234719     2.36129512814019
113 1     2.28932891477001     48.5388234373731    -3.08227074735152
114 1  -0.0663905385283154     48.5388234373731       1.000403659267
115 3  -0.0663905385283154     50.4634146095707     -4.4431622162247
116 2     2.28932891477001     50.4634146095707   -0.360487809606182
117 4  -0.0663905385283154     52.3880057817694    -1.72137927847834
118 4     2.28932891477001     52.3880057817694     2.36129512814019
119 2     2.28932891477001     51.4257101956706    -3.08227074735152
120 4  -0.0663905385283154     51.4257101956706       1.000403659267
121 1  -0.0663905385283154     53.3503013678683     -4.4431622162247
122 3     2.28932891477001     53.3503013678683   -0.360487809606182
123 3  -0.0663905385283154     55.2748925400659    -1.72137927847834
124 2     2.28932891477001     55.2748925400659     2.36129512814019
125 2     2.28932891477001     54.3125969539671    -3.08227074735152
126 2  -0.0663905385283154     54.3125969539671       1.000403659267
127 2  -0.0663905385283154     56.2371881261648     -4.4431622162247
128 1     2.28932891477001     56.2371881261648   -0.360487809606182
637 2  -0.0663905385283154    -4.38743379807215     3.72218659701337
638 2     2.28932891477001    -4.38743379807215     7.80486100363189
639 2  -0.0663905385283154    -2.46284262587448     6.44396953475871
640 2     2.28932891477001    -2.46284262587448     10.5266439413783
641 4     2.28932891477001    -3.42513821197332     5.08307806588655
642 3  -0.0663905385283154    -3.42513821197332     9.16575247250508
643 4  -0.0663905385283154    -1.50054703977564     3.72218659701337
644 4     2.28932891477001    -1.50054703977564     7.80486100363189
645 3  -0.0663905385283154    0.424044132423055     6.44396953475871
646 1     2.28932891477001    0.424044132423055     10.5266439413783
647 4     2.28932891477001    -0.53825145367578     5.08307806588655
648 2  -0.0663905385283154    -0.53825145367578     9.16575247250508
649 1  -0.0663905385283154     1.38633971852189     3.72218659701337
650 3     2.28932891477001     1.38633971852189     7.80486100363189
651 3  -0.0663905385283154     3.31093089071956     6.44396953475871
652 2     2.28932891477001     3.31093089071956     10.5266439413783
653 1     2.28932891477001     2.34863530462073     5.08307806588655
654 2  -0.0663905385283154     2.34863530462073     9.16575247250508
655 2  -0.0663905385283154      4.2732264768184     3.72218659701337
656 2     2.28932891477001      4.2732264768184     7.80486100363189
657 4  -0.0663905385283154      6.1978176490171     6.44396953475871
658 1     2.28932891477001      6.1978176490171     10.5266439413783
659 1     2.28932891477001     5.23552206291826     5.08307806588655
660 2  -0.0663905385283154     5.23552206291826     9.16575247250508
661 4  -0.0663905385283154     7.16011323511593     3.72218659701337
662 4     2.28932891477001     7.16011323511593     7.80486100363189
663 3  -0.0663905385283154      9.0847044073136     6.44396953475871
664 4     2.28932891477001      9.0847044073136     10.5266439413783
665 3     2.28932891477001     8.12240882121477     5.08307806588655
666 4  -0.0663905385283154     8.12240882121477     9.16575247250508
667 2  -0.0663905385283154     10.0469999934124     3.72218659701337
668 4     2.28932891477001     10.0469999934124     7.80486100363189
669 2  -0.0663905385283154     11.9715911656111     6.44396953475871
670 2     2.28932891477001     11.9715911656111     10.5266439413783
671 2     2.28932891477001     11.0092955795123     5.08307806588655
672 2  -0.0663905385283154     11.0092955795123     9.16575247250508
673 2  -0.0663905385283154       12.93388675171     3.72218659701337
674 2     2.28932891477001       12.93388675171     7.80486100363189
675 1  -0.0663905385283154     14.8584779239076     6.44396953475871
676 3     2.28932891477001     14.8584779239076     10.5266439413783
677 2     2.28932891477001     13.8961823378088     5.08307806588655
678 2  -0.0663905385283154     13.8961823378088     9.16575247250508
679 2  -0.0663905385283154     15.8207735100065     3.72218659701337
680 3     2.28932891477001     15.8207735100065     7.80486100363189
681 3  -0.0663905385283154     17.7453646822052     6.44396953475871
682 2     2.28932891477001     17.7453646822052     10.5266439413783
683 2     2.28932891477001     16.7830690961063     5.08307806588655
684 2  -0.0663905385283154     16.7830690961063     9.16575247250508
685 2  -0.0663905385283154      18.707660268304     3.72218659701337
686 1     2.28932891477001      18.707660268304     7.80486100363189
687 2  -0.0663905385283154     20.6322514405017     6.44396953475871
688 2     2.28932891477001     20.6322514405017     10.5266439413783
689 4     2.28932891477001     19.6699558544029     5.08307806588655
690 1  -0.0663905385283154     19.6699558544029     9.16575247250508
691 2  -0.0663905385283154     21.5945470266005     3.72218659701337
692 4     2.28932891477001     21.5945470266005     7.80486100363189
693 4  -0.0663905385283154     23.5191381987992     6.44396953475871
694 2     2.28932891477001     23.5191381987992     10.5266439413783
695 2     2.28932891477001     22.5568426127004     5.08307806588655
696 4  -0.0663905385283154     22.5568426127004     9.16575247250508
697 1  -0.0663905385283154     24.4814337848981     3.72218659701337
698 3     2.28932891477001     24.4814337848981     7.80486100363189
699 2  -0.0663905385283154     26.4060249570957     6.44396953475871
700 2     2.28932891477001     26.4060249570957     10.5266439413783
701 2     2.28932891477001     25.4437293709969     5.08307806588655
702 2  -0.0663905385283154     25.4437293709969     9.16575247250508
703 4  -0.0663905385283154     27.3683205431946     3.72218659701337
704 2     2.28932891477001     27.3683205431946     7.80486100363189
705 2  -0.0663905385283154     29.2929117153933     6.44396953475871
706 2     2.28932891477001     29.2929117153933     10.5266439413783
707 3     2.28932891477001     28.3306161292944     5.08307806588655
708 2  -0.0663905385283154     28.3306161292944     9.16575247250508
709 1  -0.0663905385283154     30.2552073014921     3.72218659701337
710 2     2.28932891477001     30.2552073014921     7.80486100363189
711 3  -0.0663905385283154     32.1797984736898     6.44396953475871
712 2     2.28932891477001     32.1797984736898     10.5266439413783
713 3     2.28932891477001     31.2175028875909     5.08307806588655
714 2  -0.0663905385283154     31.2175028875909     9.16575247250508
715 3  -0.0663905385283154     33.1420940597886     3.72218659701337
716 1     2.28932891477001     33.1420940597886     7.80486100363189
717 4  -0.0663905385283154     35.0666852319873     6.44396953475871
718 1     2.28932891477001     35.0666852319873     10.5266439413783
719 2     2.28932891477001     34.1043896458885     5.08307806588655
720 4  -0.0663905385283154     34.1043896458885     9.16575247250508
721 2  -0.0663905385283154     36.0289808180861     3.72218659701337
722 2     2.28932891477001     36.0289808180861     7.80486100363189
723 3  -0.0663905385283154     37.9535719902838     6.44396953475871
724 3     2.28932891477001     37.9535719902838     10.5266439413783
725 2     2.28932891477001      36.991276404185     5.08307806588655
726 2  -0.0663905385283154      36.991276404185     9.16575247250508
727 2  -0.0663905385283154     38.9158675763826     3.72218659701337
728 3     2.28932891477001     38.9158675763826     7.80486100363189
729 2  -0.0663905385283154     40.8404587485814     6.44396953475871
730 3     2.28932891477001     40.8404587485814     10.5266439413783
731 2     2.28932891477001     39.8781631624825     5.08307806588655
732 1  -0.0663905385283154     39.8781631624825     9.16575247250508
733 4  -0.0663905385283154     41.8027543346802     3.72218659701337
734 3     2.28932891477001     41.8027543346802     7.80486100363189
735 2  -0.0663905385283154     43.7273455068779     6.44396953475871
736 1     2.28932891477001     43.7273455068779     10.5266439413783
737 2     2.28932891477001      42.765049920779     5.08307806588655
738 1  -0.0663905385283154      42.765049920779     9.16575247250508
739 2  -0.0663905385283154     44.6896410929767     3.72218659701337
740 3     2.28932891477001     44.6896410929767     7.80486100363189
741 2  -0.0663905385283154     46.6142322651754     6.44396953475871
742 3     2.28932891477001     46.6142322651754     10.5266439413783
743 2     2.28932891477001     45.6519366790765     5.08307806588655
744 4  -0.0663905385283154     45.6519366790765     9.16575247250508
745 1  -0.0663905385283154     47.5765278512742     3.72218659701337
746 3     2.28932891477001     47.5765278512742     7.80486100363189
747 1  -0.0663905385283154     49.5011190234719     6.44396953475871
748 3     2.28932891477001     49.5011190234719     10.5266439413783
749 2     2.28932891477001     48.5388234373731     5.08307806588655
750 4  -0.0663905385283154     48.5388234373731     9.16575247250508
751 2  -0.0663905385283154     50.4634146095707     3.72218659701337
752 3     2.28932891477001     50.4634146095707     7.80486100363189
753 2  -0.0663905385283154     52.3880057817694     6.44396953475871
754 3     2.28932891477001     52.3880057817694     10.5266439413783
755 4     2.28932891477001     51.4257101956706     5.08307806588655
756 3  -0.0663905385283154     51.4257101956706     9.16575247250508
757 1  -0.0663905385283154     53.3503013678683     3.72218659701337
758 2     2.28932891477001     53.3503013678683     7.80486100363189
759 2  -0.0663905385283154     55.2748925400659     6.44396953475871
760 3     2.28932891477001     55.2748925400659     10.5266439413783
761 3     2.28932891477001     54.3125969539671     5.08307806588655
762 2  -0.0663905385283154     54.3125969539671     9.16575247250508
763 1  -0.0663905385283154     56.2371881261648     3.72218659701337
764 2     2.28932891477001     56.2371881261648     7.80486100363189
1273 4  -0.0663905385283154    -4.38743379807215     11.8875354102514
1274 2     2.28932891477001    -4.38743379807215       15.97020981687
1275 2  -0.0663905385283154    -2.46284262587448     14.6093183479968
1276 2     2.28932891477001    -2.46284262587448     18.6919927546163
1277 2     2.28932891477001    -3.42513821197332     13.2484268791236
1278 4  -0.0663905385283154    -3.42513821197332     17.3311012857432
1279 3  -0.0663905385283154    -1.50054703977564     11.8875354102514
1280 4     2.28932891477001    -1.50054703977564       15.97020981687
1281 2  -0.0663905385283154    0.424044132423055     14.6093183479968
1282 2     2.28932891477001    0.424044132423055     18.6919927546163
1283 2     2.28932891477001    -0.53825145367578     13.2484268791236
1284 2  -0.0663905385283154    -0.53825145367578     17.3311012857432
1285 2  -0.0663905385283154     1.38633971852189     11.8875354102514
1286 2     2.28932891477001     1.38633971852189       15.97020981687
1287 2  -0.0663905385283154     3.31093089071956     14.6093183479968
1288 4     2.28932891477001     3.31093089071956     18.6919927546163
1289 2     2.28932891477001     2.34863530462073     13.2484268791236
1290 3  -0.0663905385283154     2.34863530462073     17.3311012857432
1291 3  -0.0663905385283154      4.2732264768184     11.8875354102514
1292 3     2.28932891477001      4.2732264768184       15.97020981687
1293 2  -0.0663905385283154      6.1978176490171     14.6093183479968
1294 2     2.28932891477001      6.1978176490171     18.6919927546163
1295 3     2.28932891477001     5.23552206291826     13.2484268791236
1296 2  -0.0663905385283154     5.23552206291826     17.3311012857432
1297 3  -0.0663905385283154     7.16011323511593     11.8875354102514
1298 2     2.28932891477001     7.16011323511593       15.97020981687
1299 2  -0.0663905385283154      9.0847044073136     14.6093183479968
1300 2     2.28932891477001      9.0847044073136     18.6919927546163
1301 2     2.28932891477001     8.12240882121477     13.2484268791236
1302 4  -0.0663905385283154     8.12240882121477     17.3311012857432
1303 1  -0.0663905385283154     10.0469999934124     11.8875354102514
1304 2     2.28932891477001     10.0469999934124       15.97020981687
1305 2  -0.0663905385283154     11.9715911656111     14.6093183479968
1306 4     2.28932891477001     11.9715911656111     18.6919927546163
1307 3     2.28932891477001     11.0092955795123     13.2484268791236
1308 3  -0.0663905385283154     11.0092955795123     17.3311012857432
1309 3  -0.0663905385283154       12.93388675171     11.8875354102514
1315 1  -0.0663905385283154     15.8207735100065     11.8875354102514
1321 4  -0.0663905385283154      18.707660268304     11.8875354102514
1327 4  -0.0663905385283154     21.5945470266005     11.8875354102514
1333 1  -0.0663905385283154     24.4814337848981     11.8875354102514
1339 2  -0.0663905385283154     27.3683205431946     11.8875354102514
1345 2  -0.0663905385283154     30.2552073014921     11.8875354102514
1351 2  -0.0663905385283154     33.1420940597886     11.8875354102514
1357 3  -0.0663905385283154     36.0289808180861     11.8875354102514
1363 1  -0.0663905385283154     38.9158675763826     11.8875354102514
1369 3  -0.0663905385283154     41.8027543346802     11.8875354102514
1375 1  -0.0663905385283154     44.6896410929767     11.8875354102514
1381 4  -0.0663905385283154     47.5765278512742     11.8875354102514
1387 2  -0.0663905385283154     50.4634146095707     11.8875354102514
1393 4  -0.0663905385283154     53.3503013678683     11.8875354102514
1399 1  -0.0663905385283154     56.2371881261648     11.8875354102514
1909 2  -0.0663905385283154    -4.38743379807215     20.0528842234885
1910 3     2.28932891477001    -4.38743379807215      24.135558630108
1911 2  -0.0663905385283154    -2.46284262587448     22.7746671612349
1912 2     2.28932891477001    -2.46284262587448     26.8573415678534
1913 3     2.28932891477001    -3.42513821197332     21.4137756923617
1914 3  -0.0663905385283154    -3.42513821197332     25.4964500989812
1915 2  -0.0663905385283154    -1.50054703977564     20.0528842234885
1916 3     2.28932891477001    -1.50054703977564      24.135558630108
1917 2  -0.0663905385283154    0.424044132423055     22.7746671612349
1918 2     2.28932891477001    0.424044132423055     26.8573415678534
1919 1     2.28932891477001    -0.53825145367578     21.4137756923617
1920 3  -0.0663905385283154    -0.53825145367578     25.4964500989812
1921 2  -0.0663905385283154     1.38633971852189     20.0528842234885
1922 2     2.28932891477001     1.38633971852189      24.135558630108
1923 3  -0.0663905385283154     3.31093089071956     22.7746671612349
1924 2     2.28932891477001     3.31093089071956     26.8573415678534
1925 4     2.28932891477001     2.34863530462073     21.4137756923617
1926 2  -0.0663905385283154     2.34863530462073     25.4964500989812
1927 2  -0.0663905385283154      4.2732264768184     20.0528842234885
1928 1     2.28932891477001      4.2732264768184      24.135558630108
1929 4  -0.0663905385283154      6.1978176490171     22.7746671612349
1930 2     2.28932891477001      6.1978176490171     26.8573415678534
1931 3     2.28932891477001     5.23552206291826     21.4137756923617
1932 1  -0.0663905385283154     5.23552206291826     25.4964500989812
1933 2  -0.0663905385283154     7.16011323511593     20.0528842234885
1934 1     2.28932891477001     7.16011323511593      24.135558630108
1935 4  -0.0663905385283154      9.0847044073136     22.7746671612349
1936 2     2.28932891477001      9.0847044073136     26.8573415678534
1937 3     2.28932891477001     8.12240882121477     21.4137756923617
1938 4  -0.0663905385283154     8.12240882121477     25.4964500989812
1939 2  -0.0663905385283154     10.0469999934124     20.0528842234885
1940 2     2.28932891477001     10.0469999934124      24.135558630108
1941 2  -0.0663905385283154     11.9715911656111     22.7746671612349
1942 1     2.28932891477001     11.9715911656111     26.8573415678534
1943 2     2.28932891477001     11.0092955795123     21.4137756923617
1944 2  -0.0663905385283154     11.0092955795123     25.4964500989812
2545 3  -0.0663905385283154    -4.38743379807215     28.2182330367266
2546 2     2.28932891477001    -4.38743379807215     32.3009074433461
2547 2  -0.0663905385283154    -2.46284262587448     30.9400159744729
2549 1     2.28932891477001    -3.42513821197332     29.5791245055997
2550 2  -0.0663905385283154    -3.42513821197332     33.6617989122183
2551 3  -0.0663905385283154    -1.50054703977564     28.2182330367266
2552 1     2.28932891477001    -1.50054703977564     32.3009074433461
2553 4  -0.0663905385283154    0.424044132423055     30.9400159744729
2555 2     2.28932891477001    -0.53825145367578     29.5791245055997
2556 4  -0.0663905385283154    -0.53825145367578     33.6617989122183
2557 1  -0.0663905385283154     1.38633971852189     28.2182330367266
2558 1     2.28932891477001     1.38633971852189     32.3009074433461
2559 2  -0.0663905385283154     3.31093089071956     30.9400159744729
2561 2     2.28932891477001     2.34863530462073     29.5791245055997
2562 3  -0.0663905385283154     2.34863530462073     33.6617989122183
2563 1  -0.0663905385283154      4.2732264768184     28.2182330367266
2564 2     2.28932891477001      4.2732264768184     32.3009074433461
2565 2  -0.0663905385283154      6.1978176490171     30.9400159744729
2567 1     2.28932891477001     5.23552206291826     29.5791245055997
2568 2  -0.0663905385283154     5.23552206291826     33.6617989122183
2569 3  -0.0663905385283154     7.16011323511593     28.2182330367266
2570 2     2.28932891477001     7.16011323511593     32.3009074433461
2571 1  -0.0663905385283154      9.0847044073136     30.9400159744729
2573 2     2.28932891477001     8.12240882121477     29.5791245055997
2574 1  -0.0663905385283154     8.12240882121477     33.6617989122183
2575 2  -0.0663905385283154     10.0469999934124     28.2182330367266
2576 2     2.28932891477001     10.0469999934124     32.3009074433461
2577 2  -0.0663905385283154     11.9715911656111     30.9400159744729
2579 3     2.28932891477001     11.0092955795123     29.5791245055997
2580 2  -0.0663905385283154     11.0092955795123     33.6617989122183
2548 4     2.28932891477001    -2.46284262587448     35.0226903810915
2554 4     2.28932891477001    0.424044132423055     35.0226903810915
2560 1     2.28932891477001     3.31093089071956     35.0226903810915
2566 1     2.28932891477001      6.1978176490171     35.0226903810915
2572 2     2.28932891477001      9.0847044073136     35.0226903810915
2578 1     2.28932891477001     11.9715911656111     35.0226903810915
3181 2  -0.0663905385283154    -4.38743379807215     36.3835818499646
3182 2     2.28932891477001    -4.38743379807215     40.4662562565842
3183 2  -0.0663905385283154    -2.46284262587448      39.105364787711
3184 3     2.28932891477001    -2.46284262587448     43.1880391943295
3185 2     2.28932891477001    -3.42513821197332     37.7444733188378
3186 2  -0.0663905385283154    -3.42513821197332     41.8271477254563
3187 1  -0.0663905385283154    -1.50054703977564     36.3835818499646
3188 3     2.28932891477001    -1.50054703977564     40.4662562565842
3189 2  -0.0663905385283154    0.424044132423055      39.105364787711
3190 4     2.28932891477001    0.424044132423055     43.1880391943295
3191 2     2.28932891477001    -0.53825145367578     37.7444733188378
3192 1  -0.0663905385283154    -0.53825145367578     41.8271477254563
3193 3  -0.0663905385283154     1.38633971852189     36.3835818499646
3194 4     2.28932891477001     1.38633971852189     40.4662562565842
3195 3  -0.0663905385283154     3.31093089071956      39.105364787711
3196 2     2.28932891477001     3.31093089071956     43.1880391943295
3197 1     2.28932891477001     2.34863530462073     37.7444733188378
3198 1  -0.0663905385283154     2.34863530462073     41.8271477254563
3199 1  -0.0663905385283154      4.2732264768184     36.3835818499646
3200 3     2.28932891477001      4.2732264768184     40.4662562565842
3201 3  -0.0663905385283154      6.1978176490171      39.105364787711
3202 2     2.28932891477001      6.1978176490171     43.1880391943295
3203 2     2.28932891477001     5.23552206291826     37.7444733188378
3204 1  -0.0663905385283154     5.23552206291826     41.8271477254563
3205 1  -0.0663905385283154     7.16011323511593     36.3835818499646
3206 3     2.28932891477001     7.16011323511593     40.4662562565842
3207 2  -0.0663905385283154      9.0847044073136      39.105364787711
3208 2     2.28932891477001      9.0847044073136     43.1880391943295
3209 3     2.28932891477001     8.12240882121477     37.7444733188378
3210 4  -0.0663905385283154     8.12240882121477     41.8271477254563
3211 3  -0.0663905385283154     10.0469999934124     36.3835818499646
3212 1     2.28932891477001     10.0469999934124     40.4662562565842
3213 2  -0.0663905385283154     11.9715911656111      39.105364787711
3214 4     2.28932891477001     11.9715911656111     43.1880391943295
3215 2     2.28932891477001     11.0092955795123     37.7444733188378
3216 2  -0.0663905385283154     11.0092955795123     41.8271477254563
3817 3  -0.0663905385283154    -4.38743379807215     44.5489306632027
3818 4     2.28932891477001    -4.38743379807215     48.6316050698212
3819 3  -0.0663905385283154    -2.46284262587448     47.2707136009491
3820 4     2.28932891477001    -2.46284262587448     51.3533880075676
3821 2     2.28932891477001    -3.42513821197332     45.9098221320759
3822 4  -0.0663905385283154    -3.42513821197332     49.9924965386944
3823 2  -0.0663905385283154    -1.50054703977564     44.5489306632027
3824 3     2.28932891477001    -1.50054703977564     48.6316050698212
3825 2  -0.0663905385283154    0.424044132423055     47.2707136009491
3826 1     2.28932891477001    0.424044132423055     51.3533880075676
3827 2     2.28932891477001    -0.53825145367578     45.9098221320759
3828 2  -0.0663905385283154    -0.53825145367578     49.9924965386944
3829 2  -0.0663905385283154     1.38633971852189     44.5489306632027
3830 3     2.28932891477001     1.38633971852189     48.6316050698212