ITEM: TIMESTEP
0
ITEM: NUMBER OF ATOMS
19670
ITEM: BOX BOUNDS pp ss ss
-6.6390538528315446e-02 4.6450483680673154e+00
-4.4179385873935528e+00 3.0069077178463465e+02
-4.4740544797805075e+00 3.0451009348149751e+02
ITEM: ATOMS id type x y z
1310 3     2.28932891477001       12.93388675171       15.97020981687
1311 2  -0.0663905385283154     14.8584779239076     14.6093183479968
1312 4     2.28932891477001     14.8584779239076     18.6919927546163
1313 2     2.28932891477001     13.8961823378088     13.2484268791236
1314 3  -0.0663905385283154     13.8961823378088     17.3311012857432
1316 1     2.28932891477001     15.8207735100065       15.97020981687
1317 2  -0.0663905385283154     17.7453646822052     14.6093183479968
1318 4     2.28932891477001     17.7453646822052     18.6919927546163
1319 2     2.28932891477001     16.7830690961063     13.2484268791236
1320 3  -0.0663905385283154     16.7830690961063     17.3311012857432
1322 2     2.28932891477001      18.707660268304       15.97020981687
1323 4  -0.0663905385283154     20.6322514405017     14.6093183479968
1324 2     2.28932891477001     20.6322514405017     18.6919927546163
1325 1     2.28932891477001     19.6699558544029     13.2484268791236
1326 3  -0.0663905385283154     19.6699558544029     17.3311012857432
1328 4     2.28932891477001     21.5945470266005       15.97020981687
1329 3  -0.0663905385283154     23.5191381987992     14.6093183479968
1330 4     2.28932891477001     23.5191381987992     18.6919927546163
1331 2     2.28932891477001     22.5568426127004     13.2484268791236
1332 3  -0.0663905385283154     22.5568426127004     17.3311012857432
1334 3     2.28932891477001     24.4814337848981       15.97020981687
1335 4  -0.0663905385283154     26.4060249570957     14.6093183479968
1336 2     2.28932891477001     26.4060249570957     18.6919927546163
1337 2     2.28932891477001     25.4437293709969     13.2484268791236
1338 4  -0.0663905385283154     25.4437293709969     17.3311012857432
1340 3     2.28932891477001     27.3683205431946       15.97020981687
1341 2  -0.0663905385283154     29.2929117153933     14.6093183479968
1342 3     2.28932891477001     29.2929117153933     18.6919927546163
1343 2     2.28932891477001     28.3306161292944     13.2484268791236
1344 3  -0.0663905385283154     28.3306161292944     17.3311012857432
1346 4     2.28932891477001     30.2552073014921       15.97020981687
1347 3  -0.0663905385283154     32.1797984736898     14.6093183479968
1348 4     2.28932891477001     32.1797984736898     18.6919927546163
1349 3     2.28932891477001     31.2175028875909     13.2484268791236
1350 4  -0.0663905385283154     31.2175028875909     17.3311012857432
1352 2     2.28932891477001     33.1420940597886       15.97020981687
1353 3  -0.0663905385283154     35.0666852319873     14.6093183479968
1354 3     2.28932891477001     35.0666852319873     18.6919927546163
1355 2     2.28932891477001     34.1043896458885     13.2484268791236
1356 2  -0.0663905385283154     34.1043896458885     17.3311012857432
1358 3     2.28932891477001     36.0289808180861       15.97020981687
1359 2  -0.0663905385283154     37.9535719902838     14.6093183479968
1360 3     2.28932891477001     37.9535719902838     18.6919927546163
1361 4     2.28932891477001      36.991276404185     13.2484268791236
1362 3  -0.0663905385283154      36.991276404185     17.3311012857432
1364 1     2.28932891477001     38.9158675763826       15.97020981687
1365 2  -0.0663905385283154     40.8404587485814     14.6093183479968
1366 2     2.28932891477001     40.8404587485814     18.6919927546163
1367 1     2.28932891477001     39.8781631624825     13.2484268791236
1368 3  -0.0663905385283154     39.8781631624825     17.3311012857432
1370 2     2.28932891477001     41.8027543346802       15.97020981687
1371 3  -0.0663905385283154     43.7273455068779     14.6093183479968
1372 3     2.28932891477001     43.7273455068779     18.6919927546163
1373 2     2.28932891477001      42.765049920779     13.2484268791236
1374 3  -0.0663905385283154      42.765049920779     17.3311012857432
1376 1     2.28932891477001     44.6896410929767       15.97020981687
1377 3  -0.0663905385283154     46.6142322651754     14.6093183479968
1378 1     2.28932891477001     46.6142322651754     18.6919927546163
1379 1     2.28932891477001     45.6519366790765     13.2484268791236
1380 3  -0.0663905385283154     45.6519366790765     17.3311012857432
1382 3     2.28932891477001     47.5765278512742       15.97020981687
1383 4  -0.0663905385283154     49.5011190234719     14.6093183479968
1384 3     2.28932891477001     49.5011190234719     18.6919927546163
1385 2     2.28932891477001     48.5388234373731     13.2484268791236
1386 2  -0.0663905385283154     48.5388234373731     17.3311012857432
1388 3     2.28932891477001     50.4634146095707       15.97020981687
1389 2  -0.0663905385283154     52.3880057817694     14.6093183479968
1390 2     2.28932891477001     52.3880057817694     18.6919927546163
1391 3     2.28932891477001     51.4257101956706     13.2484268791236
1392 2  -0.0663905385283154     51.4257101956706     17.3311012857432
1394 3     2.28932891477001     53.3503013678683       15.97020981687
1395 3  -0.0663905385283154     55.2748925400659     14.6093183479968
1396 3     2.28932891477001     55.2748925400659     18.6919927546163
1397 3     2.28932891477001     54.3125969539671     13.2484268791236
1398 2  -0.0663905385283154     54.3125969539671     17.3311012857432
1400 2     2.28932891477001     56.2371881261648       15.97020981687
1945 2  -0.0663905385283154       12.93388675171     20.0528842234885
1946 2     2.28932891477001       12.93388675171      24.135558630108
1947 2  -0.0663905385283154     14.8584779239076     22.7746671612349
1948 2     2.28932891477001     14.8584779239076     26.8573415678534
1949 2     2.28932891477001     13.8961823378088     21.4137756923617
1950 1  -0.0663905385283154     13.8961823378088     25.4964500989812
1951 2  -0.0663905385283154     15.8207735100065     20.0528842234885
1952 2     2.28932891477001     15.8207735100065      24.135558630108
1953 2  -0.0663905385283154     17.7453646822052     22.7746671612349
1954 2     2.28932891477001     17.7453646822052     26.8573415678534
1955 1     2.28932891477001     16.7830690961063     21.4137756923617
1956 3  -0.0663905385283154     16.7830690961063     25.4964500989812
1957 2  -0.0663905385283154      18.707660268304     20.0528842234885
1958 1     2.28932891477001      18.707660268304      24.135558630108
1959 1  -0.0663905385283154     20.6322514405017     22.7746671612349
1960 2     2.28932891477001     20.6322514405017     26.8573415678534
1961 3     2.28932891477001     19.6699558544029     21.4137756923617
1962 4  -0.0663905385283154     19.6699558544029     25.4964500989812
1963 3  -0.0663905385283154     21.5945470266005     20.0528842234885
1964 4     2.28932891477001     21.5945470266005      24.135558630108
1965 4  -0.0663905385283154     23.5191381987992     22.7746671612349
1966 1     2.28932891477001     23.5191381987992     26.8573415678534
1967 2     2.28932891477001     22.5568426127004     21.4137756923617
1968 1  -0.0663905385283154     22.5568426127004     25.4964500989812
1969 2  -0.0663905385283154     24.4814337848981     20.0528842234885
1970 3     2.28932891477001     24.4814337848981      24.135558630108
1971 3  -0.0663905385283154     26.4060249570957     22.7746671612349
1972 2     2.28932891477001     26.4060249570957     26.8573415678534
1973 3     2.28932891477001     25.4437293709969     21.4137756923617
1974 3  -0.0663905385283154     25.4437293709969     25.4964500989812
1975 2  -0.0663905385283154     27.3683205431946     20.0528842234885
1976 3     2.28932891477001     27.3683205431946      24.135558630108
1977 2  -0.0663905385283154     29.2929117153933     22.7746671612349
1978 3     2.28932891477001     29.2929117153933     26.8573415678534
1979 1     2.28932891477001     28.3306161292944     21.4137756923617
1980 1  -0.0663905385283154     28.3306161292944     25.4964500989812
1981 1  -0.0663905385283154     30.2552073014921     20.0528842234885
1982 3     2.28932891477001     30.2552073014921      24.135558630108
1983 2  -0.0663905385283154     32.1797984736898     22.7746671612349
1984 4     2.28932891477001     32.1797984736898     26.8573415678534
1985 3     2.28932891477001     31.2175028875909     21.4137756923617
1986 2  -0.0663905385283154     31.2175028875909     25.4964500989812
1987 2  -0.0663905385283154     33.1420940597886     20.0528842234885
1988 2     2.28932891477001     33.1420940597886      24.135558630108
1989 4  -0.0663905385283154     35.0666852319873     22.7746671612349
1990 2     2.28932891477001     35.0666852319873     26.8573415678534
1991 3     2.28932891477001     34.1043896458885     21.4137756923617
1992 4  -0.0663905385283154     34.1043896458885     25.4964500989812
1993 4  -0.0663905385283154     36.0289808180861     20.0528842234885
1994 3     2.28932891477001     36.0289808180861      24.135558630108
1995 3  -0.0663905385283154     37.9535719902838     22.7746671612349
1996 2     2.28932891477001     37.9535719902838     26.8573415678534
1997 3     2.28932891477001      36.991276404185     21.4137756923617
1998 3  -0.0663905385283154      36.991276404185     25.4964500989812
1999 4  -0.0663905385283154     38.9158675763826     20.0528842234885
2000 1     2.28932891477001     38.9158675763826      24.135558630108
2001 4  -0.0663905385283154     40.8404587485814     22.7746671612349
2002 4     2.28932891477001     40.8404587485814     26.8573415678534
2003 3     2.28932891477001     39.8781631624825     21.4137756923617
2004 4  -0.0663905385283154     39.8781631624825     25.4964500989812
2005 1  -0.0663905385283154     41.8027543346802     20.0528842234885
2006 1     2.28932891477001     41.8027543346802      24.135558630108
2007 1  -0.0663905385283154     43.7273455068779     22.7746671612349
2008 4     2.28932891477001     43.7273455068779     26.8573415678534
2009 2     2.28932891477001      42.765049920779     21.4137756923617
2010 4  -0.0663905385283154      42.765049920779     25.4964500989812
2011 4  -0.0663905385283154     44.6896410929767     20.0528842234885
2012 3     2.28932891477001     44.6896410929767      24.135558630108
2013 3  -0.0663905385283154     46.6142322651754     22.7746671612349
2014 4     2.28932891477001     46.6142322651754     26.8573415678534
2015 1     2.28932891477001     45.6519366790765     21.4137756923617
2016 2  -0.0663905385283154     45.6519366790765     25.4964500989812
2017 1  -0.0663905385283154     47.5765278512742     20.0528842234885
2018 4     2.28932891477001     47.5765278512742      24.135558630108
2019 3  -0.0663905385283154     49.5011190234719     22.7746671612349
2020 3     2.28932891477001     49.5011190234719     26.8573415678534
2021 1     2.28932891477001     48.5388234373731     21.4137756923617
2022 2  -0.0663905385283154     48.5388234373731     25.4964500989812
2023 3  -0.0663905385283154     50.4634146095707     20.0528842234885
2024 2     2.28932891477001     50.4634146095707      24.135558630108
2025 3  -0.0663905385283154     52.3880057817694     22.7746671612349
2026 2     2.28932891477001     52.3880057817694     26.8573415678534
2027 2     2.28932891477001     51.4257101956706     21.4137756923617
2028 1  -0.0663905385283154     51.4257101956706     25.4964500989812
2029 3  -0.0663905385283154     53.3503013678683     20.0528842234885
2030 3     2.28932891477001     53.3503013678683      24.135558630108
2031 4  -0.0663905385283154     55.2748925400659     22.7746671612349
2032 3     2.28932891477001     55.2748925400659     26.8573415678534
2033 2     2.28932891477001     54.3125969539671     21.4137756923617
2034 2  -0.0663905385283154     54.3125969539671     25.4964500989812
2035 2  -0.0663905385283154     56.2371881261648     20.0528842234885
2036 2     2.28932891477001     56.2371881261648      24.135558630108
2581 3  -0.0663905385283154       12.93388675171     28.2182330367266
2582 2     2.28932891477001       12.93388675171     32.3009074433461
2583 3  -0.0663905385283154     14.8584779239076     30.9400159744729
2585 3     2.28932891477001     13.8961823378088     29.5791245055997
2586 3  -0.0663905385283154     13.8961823378088     33.6617989122183
2587 4  -0.0663905385283154     15.8207735100065     28.2182330367266
2588 4     2.28932891477001     15.8207735100065     32.3009074433461
2589 2  -0.0663905385283154     17.7453646822052     30.9400159744729
2591 3     2.28932891477001     16.7830690961063     29.5791245055997
2592 2  -0.0663905385283154     16.7830690961063     33.6617989122183
2593 4  -0.0663905385283154      18.707660268304     28.2182330367266
2594 4     2.28932891477001      18.707660268304     32.3009074433461
2595 2  -0.0663905385283154     20.6322514405017     30.9400159744729
2597 4     2.28932891477001     19.6699558544029     29.5791245055997
2598 2  -0.0663905385283154     19.6699558544029     33.6617989122183
2599 2  -0.0663905385283154     21.5945470266005     28.2182330367266
2600 1     2.28932891477001     21.5945470266005     32.3009074433461
2601 2  -0.0663905385283154     23.5191381987992     30.9400159744729
2603 3     2.28932891477001     22.5568426127004     29.5791245055997
2604 3  -0.0663905385283154     22.5568426127004     33.6617989122183
2605 2  -0.0663905385283154     24.4814337848981     28.2182330367266
2606 3     2.28932891477001     24.4814337848981     32.3009074433461
2607 4  -0.0663905385283154     26.4060249570957     30.9400159744729
2609 1     2.28932891477001     25.4437293709969     29.5791245055997
2610 4  -0.0663905385283154     25.4437293709969     33.6617989122183
2611 4  -0.0663905385283154     27.3683205431946     28.2182330367266
2612 1     2.28932891477001     27.3683205431946     32.3009074433461
2613 3  -0.0663905385283154     29.2929117153933     30.9400159744729
2615 4     2.28932891477001     28.3306161292944     29.5791245055997
2616 3  -0.0663905385283154     28.3306161292944     33.6617989122183
2617 4  -0.0663905385283154     30.2552073014921     28.2182330367266
2618 3     2.28932891477001     30.2552073014921     32.3009074433461
2619 1  -0.0663905385283154     32.1797984736898     30.9400159744729
2621 2     2.28932891477001     31.2175028875909     29.5791245055997
2622 3  -0.0663905385283154     31.2175028875909     33.6617989122183
2623 2  -0.0663905385283154     33.1420940597886     28.2182330367266
2624 3     2.28932891477001     33.1420940597886     32.3009074433461
2625 3  -0.0663905385283154     35.0666852319873     30.9400159744729
2627 2     2.28932891477001     34.1043896458885     29.5791245055997
2628 3  -0.0663905385283154     34.1043896458885     33.6617989122183
2629 2  -0.0663905385283154     36.0289808180861     28.2182330367266
2630 2     2.28932891477001     36.0289808180861     32.3009074433461
2631 2  -0.0663905385283154     37.9535719902838     30.9400159744729
2633 2     2.28932891477001      36.991276404185     29.5791245055997
2634 1  -0.0663905385283154      36.991276404185     33.6617989122183
2635 1  -0.0663905385283154     38.9158675763826     28.2182330367266
2636 2     2.28932891477001     38.9158675763826     32.3009074433461
2637 2  -0.0663905385283154     40.8404587485814     30.9400159744729
2639 2     2.28932891477001     39.8781631624825     29.5791245055997
2640 3  -0.0663905385283154     39.8781631624825     33.6617989122183
2641 2  -0.0663905385283154     41.8027543346802     28.2182330367266
2642 2     2.28932891477001     41.8027543346802     32.3009074433461
2643 2  -0.0663905385283154     43.7273455068779     30.9400159744729
2645 2     2.28932891477001      42.765049920779     29.5791245055997
2646 4  -0.0663905385283154      42.765049920779     33.6617989122183
2647 2  -0.0663905385283154     44.6896410929767     28.2182330367266
2648 2     2.28932891477001     44.6896410929767     32.3009074433461
2649 3  -0.0663905385283154     46.6142322651754     30.9400159744729
2651 1     2.28932891477001     45.6519366790765     29.5791245055997
2652 4  -0.0663905385283154     45.6519366790765     33.6617989122183
2653 3  -0.0663905385283154     47.5765278512742     28.2182330367266
2654 3     2.28932891477001     47.5765278512742     32.3009074433461
2655 1  -0.0663905385283154     49.5011190234719     30.9400159744729
2657 2     2.28932891477001     48.5388234373731     29.5791245055997
2658 2  -0.0663905385283154     48.5388234373731     33.6617989122183
2659 2  -0.0663905385283154     50.4634146095707     28.2182330367266
2660 2     2.28932891477001     50.4634146095707     32.3009074433461
2661 2  -0.0663905385283154     52.3880057817694     30.9400159744729
2663 1     2.28932891477001     51.4257101956706     29.5791245055997
2664 1  -0.0663905385283154     51.4257101956706     33.6617989122183
2665 2  -0.0663905385283154     53.3503013678683     28.2182330367266
2666 1     2.28932891477001     53.3503013678683     32.3009074433461
2667 3  -0.0663905385283154     55.2748925400659     30.9400159744729
2669 2     2.28932891477001     54.3125969539671     29.5791245055997
2670 1  -0.0663905385283154     54.3125969539671     33.6617989122183
2671 3  -0.0663905385283154     56.2371881261648     28.2182330367266
2672 4     2.28932891477001     56.2371881261648     32.3009074433461
2584 3     2.28932891477001     14.8584779239076     35.0226903810915
2590 2     2.28932891477001     17.7453646822052     35.0226903810915
2596 3     2.28932891477001     20.6322514405017     35.0226903810915
2602 3     2.28932891477001     23.5191381987992     35.0226903810915
2608 1     2.28932891477001     26.4060249570957     35.0226903810915
2614 2     2.28932891477001     29.2929117153933     35.0226903810915
2620 2     2.28932891477001     32.1797984736898     35.0226903810915
2626 2     2.28932891477001     35.0666852319873     35.0226903810915
2632 4     2.28932891477001     37.9535719902838     35.0226903810915
2638 2     2.28932891477001     40.8404587485814     35.0226903810915
2644 2     2.28932891477001     43.7273455068779     35.0226903810915
2650 3     2.28932891477001     46.6142322651754     35.0226903810915
2656 1     2.28932891477001     49.5011190234719     35.0226903810915
2662 4     2.28932891477001     52.3880057817694     35.0226903810915
2668 2     2.28932891477001     55.2748925400659     35.0226903810915
3217 2  -0.0663905385283154       12.93388675171     36.3835818499646
3218 2     2.28932891477001       12.93388675171     40.4662562565842
3219 2  -0.0663905385283154     14.8584779239076      39.105364787711
3220 3     2.28932891477001     14.8584779239076     43.1880391943295
3221 2     2.28932891477001     13.8961823378088     37.7444733188378
3222 3  -0.0663905385283154     13.8961823378088     41.8271477254563
3223 3  -0.0663905385283154     15.8207735100065     36.3835818499646
3224 3     2.28932891477001     15.8207735100065     40.4662562565842
3225 2  -0.0663905385283154     17.7453646822052      39.105364787711
3226 2     2.28932891477001     17.7453646822052     43.1880391943295
3227 3     2.28932891477001     16.7830690961063     37.7444733188378
3228 1  -0.0663905385283154     16.7830690961063     41.8271477254563
3229 3  -0.0663905385283154      18.707660268304     36.3835818499646
3230 3     2.28932891477001      18.707660268304     40.4662562565842
3231 2  -0.0663905385283154     20.6322514405017      39.105364787711
3232 3     2.28932891477001     20.6322514405017     43.1880391943295
3233 1     2.28932891477001     19.6699558544029     37.7444733188378
3234 3  -0.0663905385283154     19.6699558544029     41.8271477254563
3235 4  -0.0663905385283154     21.5945470266005     36.3835818499646
3236 3     2.28932891477001     21.5945470266005     40.4662562565842
3237 3  -0.0663905385283154     23.5191381987992      39.105364787711
3238 2     2.28932891477001     23.5191381987992     43.1880391943295
3239 2     2.28932891477001     22.5568426127004     37.7444733188378
3240 2  -0.0663905385283154     22.5568426127004     41.8271477254563
3241 3  -0.0663905385283154     24.4814337848981     36.3835818499646
3242 1     2.28932891477001     24.4814337848981     40.4662562565842
3243 2  -0.0663905385283154     26.4060249570957      39.105364787711
3244 2     2.28932891477001     26.4060249570957     43.1880391943295
3245 3     2.28932891477001     25.4437293709969     37.7444733188378
3246 2  -0.0663905385283154     25.4437293709969     41.8271477254563
3247 1  -0.0663905385283154     27.3683205431946     36.3835818499646
3248 4     2.28932891477001     27.3683205431946     40.4662562565842
3249 3  -0.0663905385283154     29.2929117153933      39.105364787711
3250 1     2.28932891477001     29.2929117153933     43.1880391943295
3251 2     2.28932891477001     28.3306161292944     37.7444733188378
3252 1  -0.0663905385283154     28.3306161292944     41.8271477254563
3253 1  -0.0663905385283154     30.2552073014921     36.3835818499646
3254 3     2.28932891477001     30.2552073014921     40.4662562565842
3255 2  -0.0663905385283154     32.1797984736898      39.105364787711
3256 2     2.28932891477001     32.1797984736898     43.1880391943295
3257 4     2.28932891477001     31.2175028875909     37.7444733188378
3258 1  -0.0663905385283154     31.2175028875909     41.8271477254563
3259 2  -0.0663905385283154     33.1420940597886     36.3835818499646
3260 4     2.28932891477001     33.1420940597886     40.4662562565842
3261 1  -0.0663905385283154     35.0666852319873      39.105364787711
3262 1     2.28932891477001     35.0666852319873     43.1880391943295
3263 4     2.28932891477001     34.1043896458885     37.7444733188378
3264 3  -0.0663905385283154     34.1043896458885     41.8271477254563
3265 2  -0.0663905385283154     36.0289808180861     36.3835818499646
3266 3     2.28932891477001     36.0289808180861     40.4662562565842
3267 3  -0.0663905385283154     37.9535719902838      39.105364787711
3268 3     2.28932891477001     37.9535719902838     43.1880391943295
3269 2     2.28932891477001      36.991276404185     37.7444733188378
3270 4  -0.0663905385283154      36.991276404185     41.8271477254563
3271 4  -0.0663905385283154     38.9158675763826     36.3835818499646
3272 2     2.28932891477001     38.9158675763826     40.4662562565842
3273 4  -0.0663905385283154     40.8404587485814      39.105364787711
3274 4     2.28932891477001     40.8404587485814     43.1880391943295
3275 1     2.28932891477001     39.8781631624825     37.7444733188378
3276 3  -0.0663905385283154     39.8781631624825     41.8271477254563
3277 1  -0.0663905385283154     41.8027543346802     36.3835818499646
3278 2     2.28932891477001     41.8027543346802     40.4662562565842
3279 2  -0.0663905385283154     43.7273455068779      39.105364787711
3280 2     2.28932891477001     43.7273455068779     43.1880391943295
3281 2     2.28932891477001      42.765049920779     37.7444733188378
3282 2  -0.0663905385283154      42.765049920779     41.8271477254563
3283 3  -0.0663905385283154     44.6896410929767     36.3835818499646
3284 4     2.28932891477001     44.6896410929767     40.4662562565842
3285 3  -0.0663905385283154     46.6142322651754      39.105364787711
3286 2     2.28932891477001     46.6142322651754     43.1880391943295
3287 3     2.28932891477001     45.6519366790765     37.7444733188378
3288 3  -0.0663905385283154     45.6519366790765     41.8271477254563
3289 2  -0.0663905385283154     47.5765278512742     36.3835818499646
3290 3     2.28932891477001     47.5765278512742     40.4662562565842
3291 2  -0.0663905385283154     49.5011190234719      39.105364787711
3292 1     2.28932891477001     49.5011190234719     43.1880391943295
3293 3     2.28932891477001     48.5388234373731     37.7444733188378
3294 3  -0.0663905385283154     48.5388234373731     41.8271477254563
3295 2  -0.0663905385283154     50.4634146095707     36.3835818499646
3296 1     2.28932891477001     50.4634146095707     40.4662562565842
3297 2  -0.0663905385283154     52.3880057817694      39.105364787711
3298 3     2.28932891477001     52.3880057817694     43.1880391943295
3299 1     2.28932891477001     51.4257101956706     37.7444733188378
3300 4  -0.0663905385283154     51.4257101956706     41.8271477254563
3301 3  -0.0663905385283154     53.3503013678683     36.3835818499646
3302 2     2.28932891477001     53.3503013678683     40.4662562565842
3303 2  -0.0663905385283154     55.2748925400659      39.105364787711
3304 2     2.28932891477001     55.2748925400659     43.1880391943295
3305 3     2.28932891477001     54.3125969539671     37.7444733188378
3306 2  -0.0663905385283154     54.3125969539671     41.8271477254563
3307 2  -0.0663905385283154     56.2371881261648     36.3835818499646
3308 4     2.28932891477001     56.2371881261648     40.4662562565842
3853 2  -0.0663905385283154       12.93388675171     44.5489306632027
3854 2     2.28932891477001       12.93388675171     48.6316050698212
3855 4  -0.0663905385283154     14.8584779239076     47.2707136009491
3856 1     2.28932891477001     14.8584779239076     51.3533880075676
3857 2     2.28932891477001     13.8961823378088     45.9098221320759
3858 1  -0.0663905385283154     13.8961823378088     49.9924965386944
3859 2  -0.0663905385283154     15.8207735100065     44.5489306632027
3860 4     2.28932891477001     15.8207735100065     48.6316050698212
3861 4  -0.0663905385283154     17.7453646822052     47.2707136009491
3862 2     2.28932891477001     17.7453646822052     51.3533880075676
3863 3     2.28932891477001     16.7830690961063     45.9098221320759
3864 2  -0.0663905385283154     16.7830690961063     49.9924965386944
3865 3  -0.0663905385283154      18.707660268304     44.5489306632027
3866 4     2.28932891477001      18.707660268304     48.6316050698212
3867 2  -0.0663905385283154     20.6322514405017     47.2707136009491
3868 4     2.28932891477001     20.6322514405017     51.3533880075676
3869 2     2.28932891477001     19.6699558544029     45.9098221320759
3870 1  -0.0663905385283154     19.6699558544029     49.9924965386944
3871 3  -0.0663905385283154     21.5945470266005     44.5489306632027
3872 3     2.28932891477001     21.5945470266005     48.6316050698212
3873 3  -0.0663905385283154     23.5191381987992     47.2707136009491
3874 2     2.28932891477001     23.5191381987992     51.3533880075676
3875 2     2.28932891477001     22.5568426127004     45.9098221320759
3876 1  -0.0663905385283154     22.5568426127004     49.9924965386944
3877 2  -0.0663905385283154     24.4814337848981     44.5489306632027
3878 2     2.28932891477001     24.4814337848981     48.6316050698212
3879 3  -0.0663905385283154     26.4060249570957     47.2707136009491
3880 2     2.28932891477001     26.4060249570957     51.3533880075676
3881 3     2.28932891477001     25.4437293709969     45.9098221320759
3882 2  -0.0663905385283154     25.4437293709969     49.9924965386944
3883 2  -0.0663905385283154     27.3683205431946     44.5489306632027
3884 1     2.28932891477001     27.3683205431946     48.6316050698212
3885 4  -0.0663905385283154     29.2929117153933     47.2707136009491
3886 2     2.28932891477001     29.2929117153933     51.3533880075676
3887 2     2.28932891477001     28.3306161292944     45.9098221320759
3888 3  -0.0663905385283154     28.3306161292944     49.9924965386944
3889 1  -0.0663905385283154     30.2552073014921     44.5489306632027
3890 3     2.28932891477001     30.2552073014921     48.6316050698212
3891 3  -0.0663905385283154     32.1797984736898     47.2707136009491
3892 1     2.28932891477001     32.1797984736898     51.3533880075676
3893 2     2.28932891477001     31.2175028875909     45.9098221320759
3894 2  -0.0663905385283154     31.2175028875909     49.9924965386944
3895 2  -0.0663905385283154     33.1420940597886     44.5489306632027
3896 2     2.28932891477001     33.1420940597886     48.6316050698212
3897 2  -0.0663905385283154     35.0666852319873     47.2707136009491
3898 3     2.28932891477001     35.0666852319873     51.3533880075676
3899 4     2.28932891477001     34.1043896458885     45.9098221320759
3900 2  -0.0663905385283154     34.1043896458885     49.9924965386944
3901 2  -0.0663905385283154     36.0289808180861     44.5489306632027
3902 2     2.28932891477001     36.0289808180861     48.6316050698212
3903 3  -0.0663905385283154     37.9535719902838     47.2707136009491
3904 2     2.28932891477001     37.9535719902838     51.3533880075676
3905 2     2.28932891477001      36.991276404185     45.9098221320759
3906 3  -0.0663905385283154      36.991276404185     49.9924965386944
3907 2  -0.0663905385283154     38.9158675763826     44.5489306632027
3908 3     2.28932891477001     38.9158675763826     48.6316050698212
3909 2  -0.0663905385283154     40.8404587485814     47.2707136009491
3910 3     2.28932891477001     40.8404587485814     51.3533880075676
3911 2     2.28932891477001     39.8781631624825     45.9098221320759
3912 4  -0.0663905385283154     39.8781631624825     49.9924965386944
3913 3  -0.0663905385283154     41.8027543346802     44.5489306632027
3914 2     2.28932891477001     41.8027543346802     48.6316050698212
3915 2  -0.0663905385283154     43.7273455068779     47.2707136009491
3916 4     2.28932891477001     43.7273455068779     51.3533880075676
3917 2     2.28932891477001      42.765049920779     45.9098221320759
3918 3  -0.0663905385283154      42.765049920779     49.9924965386944
3919 2  -0.0663905385283154     44.6896410929767     44.5489306632027
3920 2     2.28932891477001     44.6896410929767     48.6316050698212
3921 3  -0.0663905385283154     46.6142322651754     47.2707136009491
3922 3     2.28932891477001     46.6142322651754     51.3533880075676
3923 2     2.28932891477001     45.6519366790765     45.9098221320759
3924 2  -0.0663905385283154     45.6519366790765     49.9924965386944
3925 4  -0.0663905385283154     47.5765278512742     44.5489306632027